                               Psi4 1.7 release

  ==> Input File <==

--------------------------------------------------------------------------
memory 40.0 Gb

molecule conformer {
0 1
    C            1.391845319213     0.000000000000     0.000000000000
    C            0.695920652319    -1.205374872649     0.000000000000
    C           -0.695920652319    -1.205374872649     0.000000000000
    C           -1.391845319213    -0.000000000000     0.000000000000
    C           -0.695920652319     1.205374872649     0.000000000000
    C            0.695920652319     1.205374872649     0.000000000000
    H            2.473081087481     0.000000000000     0.000000000000
    H            1.236539138535    -2.141749428493     0.000000000000
    H           -1.236539138535    -2.141749428493     0.000000000000
    H           -2.473081087481    -0.000000000000     0.000000000000
    H           -1.236539138535     2.141749428493     0.000000000000
    H            1.236539138535     2.141749428493     0.000000000000
}
set globals {
  geom_maxiter 200
  reference rhf
  g_convergence gau_tight
  basis aug-cc-pvqz
  freeze_core true
}
frequency('mp2')
conformer.print_out_in_angstrom()
--------------------------------------------------------------------------

                               Psi4 1.7 release
    Molecular point group: d2h
  Charge       = 0
  Multiplicity = 1
  Basis Set: AUG-CC-PVQZ
    Blend: AUG-CC-PVQZ
  Basis Set: (AUG-CC-PVQZ AUX)
    Blend: AUG-CC-PVQZ-JKFIT
  @DF-RHF Final Energy:  -230.79469833513946
    Total Energy =                       -230.7946983351394579
 Dipole X            :          0.0000000           -0.0000000           -0.0000000
 Dipole Y            :          0.0000000            0.0000000            0.0000000
 Dipole Z            :          0.0000000            0.0000000            0.0000000
 Magnitude           :                                                    0.0000000
  Basis Set: (AUG-CC-PVQZ AUX)
    Blend: AUG-CC-PVQZ-RI
    Molecular point group: d2h
  Basis Set: AUG-CC-PVQZ
    Blend: AUG-CC-PVQZ
  Basis Set: (AUG-CC-PVQZ AUX)
    Blend: AUG-CC-PVQZ-JKFIT
  Basis Set: (AUG-CC-PVQZ AUX)
    Blend: AUG-CC-PVQZ-JKFIT
	 Reference Energy          =    -230.7946983351394579 [Eh]
	 Singles Energy            =      -0.0000000000000000 [Eh]
	 Same-Spin Energy          =      -0.2459888483260410 [Eh]
	 Opposite-Spin Energy      =      -0.7691327214533012 [Eh]
	 Correlation Energy        =      -1.0151215697793423 [Eh]
	 Total Energy              =    -231.8098199049188111 [Eh]
	 SCS Total Energy          =    -231.7996538836587774 [Eh]
                               Psi4 1.7 release
  @DF-RHF Final Energy:  -230.79470538223865
    Total Energy =                       -230.7947053822386465
                               Psi4 1.7 release
  @DF-RHF Final Energy:  -230.79468962042941
    Total Energy =                       -230.7946896204294376
                               Psi4 1.7 release
  @DF-RHF Final Energy:  -230.79470260004288
    Total Energy =                       -230.7947026000429105
                               Psi4 1.7 release
  @DF-RHF Final Energy:  -230.79469148699218
    Total Energy =                       -230.7946914869921784
                               Psi4 1.7 release
  @DF-RHF Final Energy:  -230.79468794700921
    Total Energy =                       -230.7946879470092085
                               Psi4 1.7 release
  @DF-RHF Final Energy:  -230.79470725386395
    Total Energy =                       -230.7947072538639759
                               Psi4 1.7 release
  @DF-RHF Final Energy:  -230.79473762797301
    Total Energy =                       -230.7947376279730065
                               Psi4 1.7 release
  @DF-RHF Final Energy:  -230.79464979590873
    Total Energy =                       -230.7946497959086969
                               Psi4 1.7 release
  @DF-RHF Final Energy:  -230.79472760271253
    Total Energy =                       -230.7947276027125554
                               Psi4 1.7 release
  @DF-RHF Final Energy:  -230.79466548788528
    Total Energy =                       -230.7946654878852542
                               Psi4 1.7 release
  @DF-RHF Final Energy:  -230.79464084356346
    Total Energy =                       -230.7946408435634567
                               Psi4 1.7 release
  @DF-RHF Final Energy:  -230.79474840936976
    Total Energy =                       -230.7947484093697312
                               Psi4 1.7 release
  @DF-RHF Final Energy:  -230.79469749971759
    Total Energy =                       -230.7946974997175857
                               Psi4 1.7 release
  @DF-RHF Final Energy:  -230.79469795010752
    Total Energy =                       -230.7946979501075475
                               Psi4 1.7 release
  @DF-RHF Final Energy:  -230.79469740113905
    Total Energy =                       -230.7946974011390466
                               Psi4 1.7 release
  @DF-RHF Final Energy:  -230.79469747723627
    Total Energy =                       -230.7946974772362410
                               Psi4 1.7 release
  @DF-RHF Final Energy:  -230.79469652743177
    Total Energy =                       -230.7946965274317677
                               Psi4 1.7 release
  @DF-RHF Final Energy:  -230.79469468120629
    Total Energy =                       -230.7946946812062947
                               Psi4 1.7 release
  @DF-RHF Final Energy:  -230.79469814755470
    Total Energy =                       -230.7946981475546977
                               Psi4 1.7 release
  @DF-RHF Final Energy:  -230.79469805870124
    Total Energy =                       -230.7946980587012717
                               Psi4 1.7 release
  @DF-RHF Final Energy:  -230.79469790526667
    Total Energy =                       -230.7946979052666734
                               Psi4 1.7 release
  @DF-RHF Final Energy:  -230.79469785059251
    Total Energy =                       -230.7946978505925131
                               Psi4 1.7 release
  @DF-RHF Final Energy:  -230.79469824340538
    Total Energy =                       -230.7946982434053780
                               Psi4 1.7 release
  @DF-RHF Final Energy:  -230.79469796569708
    Total Energy =                       -230.7946979656970825
                               Psi4 1.7 release
  @DF-RHF Final Energy:  -230.79469808878684
    Total Energy =                       -230.7946980887868449
                               Psi4 1.7 release
  @DF-RHF Final Energy:  -230.79469787249093
    Total Energy =                       -230.7946978724909286
                               Psi4 1.7 release
  @DF-RHF Final Energy:  -230.79469808549089
    Total Energy =                       -230.7946980854908929
                               Psi4 1.7 release
  @DF-RHF Final Energy:  -230.79469803302450
    Total Energy =                       -230.7946980330244742
                               Psi4 1.7 release
  @DF-RHF Final Energy:  -230.79469787282767
    Total Energy =                       -230.7946978728276690
                               Psi4 1.7 release
  @DF-RHF Final Energy:  -230.79469748882121
    Total Energy =                       -230.7946974888212139
                               Psi4 1.7 release
  @DF-RHF Final Energy:  -230.79469744851042
    Total Energy =                       -230.7946974485104192
                               Psi4 1.7 release
  @DF-RHF Final Energy:  -230.79469530815368
    Total Energy =                       -230.7946953081536776
                               Psi4 1.7 release
  @DF-RHF Final Energy:  -230.79469655436071
    Total Energy =                       -230.7946965543607121
                               Psi4 1.7 release
  @DF-RHF Final Energy:  -230.79469655498832
    Total Energy =                       -230.7946965549883203
                               Psi4 1.7 release
  @DF-RHF Final Energy:  -230.79469713683545
    Total Energy =                       -230.7946971368354525
                               Psi4 1.7 release
  @DF-RHF Final Energy:  -230.79469552833939
    Total Energy =                       -230.7946955283393891
                               Psi4 1.7 release
  @DF-RHF Final Energy:  -230.79469732257692
    Total Energy =                       -230.7946973225768943
                               Psi4 1.7 release
  @DF-RHF Final Energy:  -230.79469464783782
    Total Energy =                       -230.7946946478377868
                               Psi4 1.7 release
  Charge       = 0
  Multiplicity = 1
  Basis Set: AUG-CC-PVQZ
    Blend: AUG-CC-PVQZ
  Basis Set: (AUG-CC-PVQZ AUX)
    Blend: AUG-CC-PVQZ-JKFIT

    Orbital Energies [Eh]
    ---------------------

    Doubly Occupied:

       1A1   -11.234531     1B1   -11.233948     2A1   -11.233922
       3A1   -11.232686     2B1   -11.232659     4A1   -11.232045
       5A1    -1.151236     3B1    -1.015126     6A1    -1.015124
       7A1    -0.824313     4B1    -0.824312     8A1    -0.710340
       9A1    -0.643695     5B1    -0.619966     6B1    -0.588348
      10A1    -0.588346     1B2    -0.503334    11A1    -0.494963
       7B1    -0.494960     1A2    -0.337250     2B2    -0.337248

  @DF-RHF Final Energy:  -230.79469464797455

   => Energetics <=

    Nuclear Repulsion Energy =            203.9418216693391912
    One-Electron Energy =                -714.3763281629851463
    Two-Electron Energy =                 279.6398118456713746
    Total Energy =                       -230.7946946479745520
 Dipole X            :         -0.0007735           -0.0000000           -0.0007735
 Dipole Y            :          0.0000000            0.0000000            0.0000000
 Dipole Z            :          0.0000000            0.0000000            0.0000000
 Magnitude           :                                                    0.0007735
  Basis Set: (AUG-CC-PVQZ AUX)
    Blend: AUG-CC-PVQZ-RI
    Molecular point group: c2v
  Basis Set: AUG-CC-PVQZ
    Blend: AUG-CC-PVQZ
  Basis Set: (AUG-CC-PVQZ AUX)
    Blend: AUG-CC-PVQZ-JKFIT
  Basis Set: (AUG-CC-PVQZ AUX)
    Blend: AUG-CC-PVQZ-JKFIT
	 Reference Energy          =    -230.7946946479745520 [Eh]
	 Singles Energy            =      -0.0000000000000000 [Eh]
	 Same-Spin Energy          =      -0.2459888719324054 [Eh]
	 Opposite-Spin Energy      =      -0.7691328109019824 [Eh]
	 Correlation Energy        =      -1.0151216828343879 [Eh]
	 Total Energy              =    -231.8098163308089283 [Eh]

	 ================> DF-SCS-MP2 Energies <==================
	-----------------------------------------------------------
	 SCS Same-Spin Scale       =       0.3333333333333333 [-]
	 SCS Opposite-Spin Scale   =       1.2000000000000000 [-]
	 SCS Same-Spin Energy      =      -0.0819962906441351 [Eh]
	 SCS Opposite-Spin Energy  =      -0.9229593730823789 [Eh]
	 SCS Correlation Energy    =      -1.0049556637265140 [Eh]
	 SCS Total Energy          =    -231.7996503117010718 [Eh]
	-----------------------------------------------------------

  -Total Gradient:
     Atom            X                  Y                   Z
    ------   -----------------  -----------------  -----------------
       1       -0.000078701653     0.000000000000     0.000000000000
       2       -0.000289382389     0.000675427808     0.000000000000
       3       -0.000286347722    -0.000686987870     0.000000000000
       4       -0.000084767703     0.000000000000     0.000000000000
       5       -0.000286347722     0.000686987870     0.000000000000
       6       -0.000289382389    -0.000675427808     0.000000000000
       7        0.000005008746     0.000000000000     0.000000000000
       8        0.000326641422    -0.000716301512     0.000000000000
       9        0.000328503635     0.000718764005     0.000000000000
      10       -0.000000369280     0.000000000000     0.000000000000
      11        0.000328503635    -0.000718764005     0.000000000000
      12        0.000326641422     0.000716301512     0.000000000000

  Vibration                       7                   8                   9
  Freq [cm^-1]                 402.8664            403.0297            608.6433
  Irrep                           Au                 B1u                 B1g
  Reduced mass [u]              2.8999              2.9014              5.9915
  Force const [mDyne/A]         0.2773              0.2777              1.3077

  IR activ [km/mol]             0.0000              0.0000              0.0000

  Vibration                       10                  11                  12
  Freq [cm^-1]                 608.6783            672.8572            688.7116
  Irrep                           Ag                 B2g                 B1u
  Reduced mass [u]              5.9906              4.5535              1.0848
  Force const [mDyne/A]         1.3077              1.2146              0.3032

  IR activ [km/mol]             0.0000              0.0000             136.1769

  Vibration                       13                  14                  15
  Freq [cm^-1]                 861.8131            861.8683            973.2063
  Irrep                          B3g                 B2g                 B2g
  Reduced mass [u]              1.2473              1.2473              1.1683
  Force const [mDyne/A]         0.5458              0.5459              0.6519

  IR activ [km/mol]             0.0000              0.0000              0.0000

  Vibration                       16                  17                  18
  Freq [cm^-1]                 976.6356            976.7400           1012.8619
  Irrep                           Au                 B1u                  Ag
  Reduced mass [u]              1.3685              1.3682              5.9836
  Force const [mDyne/A]         0.7691              0.7690              3.6167

  IR activ [km/mol]             0.0000              0.0000              0.0000

  Vibration                       19                  20                  21
  Freq [cm^-1]                1022.0169           1061.8892           1062.1605
  Irrep                          B3u                 B3u                 B2u
  Reduced mass [u]              6.5445              1.6943              1.6942
  Force const [mDyne/A]         4.0276              1.1257              1.1262

  IR activ [km/mol]             0.0000              4.0438              4.0488

  Vibration                       22                  23                  24
  Freq [cm^-1]                1168.7969           1196.3878           1196.4001
  Irrep                          B2u                 B1g                  Ag
  Reduced mass [u]              1.0327              1.1291              1.1290
  Force const [mDyne/A]         0.8312              0.9522              0.9522

  IR activ [km/mol]             0.0000              0.0000              0.0000

  Vibration                       25                  26                  27
  Freq [cm^-1]                1369.7158           1457.3063           1507.0592
  Irrep                          B1g                 B2u                 B2u
  Reduced mass [u]              1.2473              9.3271              2.0211
  Force const [mDyne/A]         1.3787             11.6708              2.7045

  IR activ [km/mol]             0.0000              0.0000              9.1286

  Vibration                       28                  29                  30
  Freq [cm^-1]                1507.3560           1637.9456           1638.3040
  Irrep                          B3u                  Ag                 B1g
  Reduced mass [u]              2.0214              5.5706              5.5697
  Force const [mDyne/A]         2.7060              8.8054              8.8078

  IR activ [km/mol]             9.1360              0.0000              0.0000

  Vibration                       31                  32                  33
  Freq [cm^-1]                3199.0624           3209.9978           3210.0184
  Irrep                          B3u                  Ag                 B1g
  Reduced mass [u]              1.0837              1.0882              1.0881
  Force const [mDyne/A]         6.5344              6.6062              6.6058

  IR activ [km/mol]             0.0034              0.0000              0.0000

  Vibration                       34                  35                  36
  Freq [cm^-1]                3225.1113           3225.4615           3236.2746
  Irrep                          B3u                 B2u                  Ag
  Reduced mass [u]              1.0959              1.0961              1.1008
  Force const [mDyne/A]         6.7162              6.7185              6.7927

  IR activ [km/mol]            42.7276             42.7334              0.0000

  ==> Thermochemistry Components <==

  Entropy, S
    Electronic S            0.000 [cal/(mol K)]        0.000 [J/(mol K)]       0.00000000 [mEh/K] (multiplicity = 1)
    Translational S        38.979 [cal/(mol K)]      163.089 [J/(mol K)]       0.06211726 [mEh/K] (mol. weight = 78.0470 [u], P = 101325.00 [Pa])
    Rotational S           22.885 [cal/(mol K)]       95.750 [J/(mol K)]       0.03646932 [mEh/K] (symmetry no. = 4)
    Vibrational S           4.589 [cal/(mol K)]       19.202 [J/(mol K)]       0.00731364 [mEh/K]
  Total S                  66.453 [cal/(mol K)]      278.041 [J/(mol K)]       0.10590022 [mEh/K]
  Correction S              0.000 [cal/(mol K)]        0.000 [J/(mol K)]       0.00000000 [mEh/K]

  Constant volume heat capacity, Cv
    Electronic Cv           0.000 [cal/(mol K)]        0.000 [J/(mol K)]       0.00000000 [mEh/K]
    Translational Cv        2.981 [cal/(mol K)]       12.472 [J/(mol K)]       0.00475022 [mEh/K]
    Rotational Cv           2.981 [cal/(mol K)]       12.472 [J/(mol K)]       0.00475022 [mEh/K]
    Vibrational Cv         11.439 [cal/(mol K)]       47.859 [J/(mol K)]       0.01822865 [mEh/K]
  Total Cv                 17.400 [cal/(mol K)]       72.803 [J/(mol K)]       0.02772908 [mEh/K]
  Correction Cv             0.000 [cal/(mol K)]        0.000 [J/(mol K)]       0.00000000 [mEh/K]

  Constant pressure heat capacity, Cp
    Electronic Cp           0.000 [cal/(mol K)]        0.000 [J/(mol K)]       0.00000000 [mEh/K]
    Translational Cp        4.968 [cal/(mol K)]       20.786 [J/(mol K)]       0.00791703 [mEh/K]
    Rotational Cp           2.981 [cal/(mol K)]       12.472 [J/(mol K)]       0.00475022 [mEh/K]
    Vibrational Cp         11.439 [cal/(mol K)]       47.859 [J/(mol K)]       0.01822865 [mEh/K]
  Total Cp                 19.387 [cal/(mol K)]       81.117 [J/(mol K)]       0.03089589 [mEh/K]
  Correction Cp             0.000 [cal/(mol K)]        0.000 [J/(mol K)]       0.00000000 [mEh/K]

  ==> Thermochemistry Energy Analysis <==

  Raw electronic energy, E0
  Total E0, Electronic energy at well bottom at 0 [K]                 -231.80981990 [Eh]

  Zero-point energy, ZPE_vib = Sum_i nu_i / 2
    Electronic ZPE          0.000 [kcal/mol]        0.000 [kJ/mol]       0.00000000 [Eh]
    Translational ZPE       0.000 [kcal/mol]        0.000 [kJ/mol]       0.00000000 [Eh]
    Rotational ZPE          0.000 [kcal/mol]        0.000 [kJ/mol]       0.00000000 [Eh]
    Vibrational ZPE        63.157 [kcal/mol]      264.250 [kJ/mol]       0.10064757 [Eh]       22089.588 [cm^-1]
  Correction ZPE           63.157 [kcal/mol]      264.250 [kJ/mol]       0.10064757 [Eh]       22089.588 [cm^-1]
  Total ZPE, Electronic energy at 0 [K]                               -231.70917234 [Eh]

  Thermal Energy, E (includes ZPE)
    Electronic E            0.000 [kcal/mol]        0.000 [kJ/mol]       0.00000000 [Eh]
    Translational E         0.889 [kcal/mol]        3.718 [kJ/mol]       0.00141628 [Eh]
    Rotational E            0.889 [kcal/mol]        3.718 [kJ/mol]       0.00141628 [Eh]
    Vibrational E          64.174 [kcal/mol]      268.504 [kJ/mol]       0.10226762 [Eh]
  Correction E             65.951 [kcal/mol]      275.940 [kJ/mol]       0.10510017 [Eh]
  Total E, Electronic energy at  298.15 [K]                           -231.70471973 [Eh]

  Enthalpy, H_trans = E_trans + k_B * T
    Electronic H            0.000 [kcal/mol]        0.000 [kJ/mol]       0.00000000 [Eh]
    Translational H         1.481 [kcal/mol]        6.197 [kJ/mol]       0.00236046 [Eh]
    Rotational H            0.889 [kcal/mol]        3.718 [kJ/mol]       0.00141628 [Eh]
    Vibrational H          64.174 [kcal/mol]      268.504 [kJ/mol]       0.10226762 [Eh]
  Correction H             66.544 [kcal/mol]      278.419 [kJ/mol]       0.10604436 [Eh]
  Total H, Enthalpy at  298.15 [K]                                    -231.70377555 [Eh]

  Gibbs free energy, G = H - T * S
    Electronic G            0.000 [kcal/mol]        0.000 [kJ/mol]       0.00000000 [Eh]
    Translational G       -10.140 [kcal/mol]      -42.428 [kJ/mol]      -0.01615980 [Eh]
    Rotational G           -5.934 [kcal/mol]      -24.829 [kJ/mol]      -0.00945705 [Eh]
    Vibrational G          62.806 [kcal/mol]      262.779 [kJ/mol]       0.10008705 [Eh]
  Correction G             46.731 [kcal/mol]      195.521 [kJ/mol]       0.07447020 [Eh]
  Total G, Free enthalpy at  298.15 [K]                               -231.73534970 [Eh]
    Molecular point group: d2h

    Geometry (in Angstrom), charge = 0, multiplicity = 1:

       Center              X                  Y                   Z
    ------------   -----------------  -----------------  -----------------
         C            1.391845319213     0.000000000000     0.000000000000
         C            0.695920652319    -1.205374872649     0.000000000000
         C           -0.695920652319    -1.205374872649     0.000000000000
         C           -1.391845319213    -0.000000000000     0.000000000000
         C           -0.695920652319     1.205374872649     0.000000000000
         C            0.695920652319     1.205374872649     0.000000000000
         H            2.473081087481     0.000000000000     0.000000000000
         H            1.236539138535    -2.141749428493     0.000000000000
         H           -1.236539138535    -2.141749428493     0.000000000000
         H           -2.473081087481    -0.000000000000     0.000000000000
         H           -1.236539138535     2.141749428493     0.000000000000
         H            1.236539138535     2.141749428493     0.000000000000

*** Psi4 exiting successfully. Buy a developer a beer!
