                               Psi4 1.4.1 release

  ==> Input File <==

--------------------------------------------------------------------------
memory 4.0 Gb

molecule ethanol_conf_1 {
0 1
    C            0.027511445592    -0.552195649364     0.140159667779
    H           -0.019283026807    -1.394122265997    -0.548205508647
    H            0.161192928219    -0.956094723589     1.142093566505
    O            1.091406588740     0.301553023869    -0.194676593518
    H            1.907433912773    -0.176770711405    -0.157845167409
    C           -1.257165077737     0.248856398247     0.069740328373
    H           -1.399880312731     0.643854951405    -0.929825183713
    H           -1.219227157056     1.082314670892     0.762149637915
    H           -2.110375783305    -0.373238745455     0.322048172823
}
set globals {
  reference rhf
  g_convergence gau_tight
  basis 6-31G(d)
}
energy, wavefunction = frequency('scf', dertype=1, return_wfn=True)
oeprop(wavefunction, 'MULLIKEN_CHARGES', title='molecule')
oeprop(wavefunction, 'LOWDIN_CHARGES', title='molecule')
--------------------------------------------------------------------------

    Molecular point group: c1
  Charge       = 0
  Multiplicity = 1
  Basis Set: 6-31G(D)
    Blend: 6-31G(D)
  Basis Set: (6-31G(D) AUX)
    Blend: CC-PVDZ-JKFIT
  @DF-RHF Final Energy:  -154.07567154667265
    Total Energy =                       -154.0756715466726519
    Molecular point group: c1
  Basis Set: 6-31G(D)
    Blend: 6-31G(D)
  Basis Set: (6-31G(D) AUX)
    Blend: CC-PVDZ-JKFIT
  Basis Set: 6-31G(D)
    Blend: 6-31G(D)
  Basis Set: (6-31G(D) AUX)
    Blend: CC-PVDZ-JKFIT
  @DF-RHF Final Energy:  -154.07567154658807
    Total Energy =                       -154.0756715465880688
  Basis Set: 6-31G(D)
    Blend: 6-31G(D)
  Basis Set: (6-31G(D) AUX)
    Blend: CC-PVDZ-JKFIT
  Basis Set: 6-31G(D)
    Blend: 6-31G(D)
  @DF-RHF Final Energy:  -154.07567065747116
    Total Energy =                       -154.0756706574711643
  @DF-RHF Final Energy:  -154.07567063905640
    Total Energy =                       -154.0756706390563977
  @DF-RHF Final Energy:  -154.07567064017638
    Total Energy =                       -154.0756706401763836
  @DF-RHF Final Energy:  -154.07567059514727
    Total Energy =                       -154.0756705951472725
  @DF-RHF Final Energy:  -154.07567004493592
    Total Energy =                       -154.0756700449359187
  @DF-RHF Final Energy:  -154.07567005392545
    Total Energy =                       -154.0756700539254496
  @DF-RHF Final Energy:  -154.07567061570614
    Total Energy =                       -154.0756706157061444
  @DF-RHF Final Energy:  -154.07567066813476
    Total Energy =                       -154.0756706681347623
  @DF-RHF Final Energy:  -154.07566835145246
    Total Energy =                       -154.0756683514524639
  @DF-RHF Final Energy:  -154.07566835719703
    Total Energy =                       -154.0756683571970314
  @DF-RHF Final Energy:  -154.07566939844656
    Total Energy =                       -154.0756693984465642
  @DF-RHF Final Energy:  -154.07566937678615
    Total Energy =                       -154.0756693767861520
  @DF-RHF Final Energy:  -154.07567056047506
    Total Energy =                       -154.0756705604750607
  @DF-RHF Final Energy:  -154.07567061388588
    Total Energy =                       -154.0756706138858760
  @DF-RHF Final Energy:  -154.07566965403080
    Total Energy =                       -154.0756696540308042
  @DF-RHF Final Energy:  -154.07566967734289
    Total Energy =                       -154.0756696773428871
  @DF-RHF Final Energy:  -154.07566892498383
    Total Energy =                       -154.0756689249838303
  @DF-RHF Final Energy:  -154.07566893167265
    Total Energy =                       -154.0756689316726522
  @DF-RHF Final Energy:  -154.07567138958746
    Total Energy =                       -154.0756713895874555
  @DF-RHF Final Energy:  -154.07567138434621
    Total Energy =                       -154.0756713843462080
  @DF-RHF Final Energy:  -154.07566544466633
    Total Energy =                       -154.0756654446663276
  @DF-RHF Final Energy:  -154.07566546706417
    Total Energy =                       -154.0756654670641694
  @DF-RHF Final Energy:  -154.07567071419936
    Total Energy =                       -154.0756707141993616
  @DF-RHF Final Energy:  -154.07567066869234
    Total Energy =                       -154.0756706686923394
  @DF-RHF Final Energy:  -154.07567108299230
    Total Energy =                       -154.0756710829923009
  @DF-RHF Final Energy:  -154.07567109744417
    Total Energy =                       -154.0756710974441717
  @DF-RHF Final Energy:  -154.07566943466239
    Total Energy =                       -154.0756694346623874
  @DF-RHF Final Energy:  -154.07566944998030
    Total Energy =                       -154.0756694499802961
  @DF-RHF Final Energy:  -154.07566849443000
    Total Energy =                       -154.0756684944300048
  @DF-RHF Final Energy:  -154.07566849999151
    Total Energy =                       -154.0756684999915080
  @DF-RHF Final Energy:  -154.07566804416160
    Total Energy =                       -154.0756680441616027
  @DF-RHF Final Energy:  -154.07566805205695
    Total Energy =                       -154.0756680520569546
  @DF-RHF Final Energy:  -154.07566855808940
    Total Energy =                       -154.0756685580894043
  @DF-RHF Final Energy:  -154.07566857148305
    Total Energy =                       -154.0756685714830496
  @DF-RHF Final Energy:  -154.07566807524998
    Total Energy =                       -154.0756680752499790
  @DF-RHF Final Energy:  -154.07566806241724
    Total Energy =                       -154.0756680624172361
  Basis Set: (6-31G(D) AUX)
    Blend: CC-PVDZ-JKFIT
  Basis Set: 6-31G(D)
    Blend: 6-31G(D)
  Basis Set: (6-31G(D) AUX)
    Blend: CC-PVDZ-JKFIT
  @DF-RHF Final Energy:  -154.07566793590473
    Total Energy =                       -154.0756679359047325
  Basis Set: 6-31G(D)
    Blend: 6-31G(D)
  Basis Set: (6-31G(D) AUX)
    Blend: CC-PVDZ-JKFIT
    Molecular point group: c1
  Charge       = 0
  Multiplicity = 1
  Basis Set: 6-31G(D)
    Blend: 6-31G(D)
  Basis Set: (6-31G(D) AUX)
    Blend: CC-PVDZ-JKFIT

    Orbital Energies [Eh]
    ---------------------

    Doubly Occupied:

       1A    -20.552777     2A    -11.270558     3A    -11.209028
       4A     -1.359747     5A     -1.011442     6A     -0.835877
       7A     -0.702311     8A     -0.645337     9A     -0.568833
      10A     -0.533628    11A     -0.524575    12A     -0.482969
      13A     -0.435259

  @DF-RHF Final Energy:  -154.07566795969331

   => Energetics <=

    Nuclear Repulsion Energy =             82.4079452656213221
    One-Electron Energy =                -372.7025430509241346
    Two-Electron Energy =                 136.2189298256095071
    Total Energy =                       -154.0756679596933054

  Dipole Moment: [D]
     X:     0.1959      Y:    -1.6776      Z:     0.4125     Total:     1.7386

    Molecular point group: c1

    Geometry (in Angstrom), charge = 0, multiplicity = 1:

       Center              X                  Y                   Z               Mass
    ------------   -----------------  -----------------  -----------------  -----------------
         C            0.027511445592    -0.552195649364     0.140159667779    12.000000000000
         H           -0.019283026807    -1.394122265997    -0.548205508647     1.007825032230
         H            0.161192928219    -0.956094723589     1.142093566505     1.007825032230
         O            1.091406588740     0.301553023869    -0.194676593518    15.994914619570
         H            1.907433912773    -0.176770711405    -0.157845167409     1.007825032230
         C           -1.257165077737     0.248856398247     0.069740328373    12.000000000000
         H           -1.399880312731     0.643854951405    -0.929825183713     1.007825032230
         H           -1.218284876858     1.083853739819     0.762614991149     1.007825032230
         H           -2.111318063502    -0.374777814383     0.321582819589     1.007825032230

  Basis Set: 6-31G(D)
    Blend: 6-31G(D)
  Basis Set: (6-31G(D) AUX)
    Blend: CC-PVDZ-JKFIT

  -Total Gradient:
     Atom            X                  Y                   Z
    ------   -----------------  -----------------  -----------------
       1       -0.000009901779     0.000017866877     0.000002053221
       2       -0.000002948013    -0.000002385199     0.000004600662
       3       -0.000002381137    -0.000005876774     0.000005312384
       4        0.000006171862    -0.000003302121     0.000001657694
       5        0.000002783804     0.000004260227    -0.000002608648
       6        0.000602538863    -0.000176552206    -0.000716684630
       7       -0.000008327789     0.000006061880     0.000002292027
       8        0.000221216851     0.000919231340     0.000608867655
       9       -0.000809152664    -0.000759304024     0.000094509635

  Vibration                       7                   8                   9
  Freq [cm^-1]                 269.9690            316.9350            447.6175
  Irrep                           A                   A                   A
  Reduced mass [u]              1.1498              1.0718              2.6509
  Force const [mDyne/A]         0.0494              0.0634              0.3129

  Vibration                       10                  11                  12
  Freq [cm^-1]                 886.8606            977.9841           1132.9905
  Irrep                           A                   A                   A
  Reduced mass [u]              1.0821              2.2158              1.8323
  Force const [mDyne/A]         0.5015              1.2487              1.3858

  Vibration                       13                  14                  15
  Freq [cm^-1]                1217.4698           1298.8725           1395.6783
  Irrep                           A                   A                   A
  Reduced mass [u]              2.2883              1.5154              1.3502
  Force const [mDyne/A]         1.9984              1.5063              1.5496

  Vibration                       16                  17                  18
  Freq [cm^-1]                1424.0477           1549.7536           1613.6199
  Irrep                           A                   A                   A
  Reduced mass [u]              1.1052              1.2337              1.4141
  Force const [mDyne/A]         1.3204              1.7457              2.1694

  Vibration                       19                  20                  21
  Freq [cm^-1]                1628.8626           1646.0011           1686.1690
  Irrep                           A                   A                   A
  Reduced mass [u]              1.0418              1.0715              1.0971
  Force const [mDyne/A]         1.6286              1.7105              1.8378

  Vibration                       22                  23                  24
  Freq [cm^-1]                3175.7919           3200.7138           3212.4304
  Irrep                           A                   A                   A
  Reduced mass [u]              1.0561              1.1087              1.0371
  Force const [mDyne/A]         6.2758              6.6921              6.3060

  Vibration                       25                  26                  27
  Freq [cm^-1]                3276.9619           3289.2755           4114.6453
  Irrep                           A                   A                   A
  Reduced mass [u]              1.1023              1.1047              1.0669
  Force const [mDyne/A]         6.9741              7.0421             10.6424

  ==> Thermochemistry Components <==

  Entropy, S
    Electronic S            0.000 [cal/(mol K)]        0.000 [J/(mol K)]       0.00000000 [mEh/K] (multiplicity = 1)
    Translational S        37.406 [cal/(mol K)]      156.507 [J/(mol K)]       0.05961029 [mEh/K] (mol. weight = 46.0419 [u], P = 101325.00 [Pa])
    Rotational S           22.265 [cal/(mol K)]       93.155 [J/(mol K)]       0.03548084 [mEh/K] (symmetry no. = 1)
    Vibrational S           4.165 [cal/(mol K)]       17.425 [J/(mol K)]       0.00663695 [mEh/K]
  Total S                  63.835 [cal/(mol K)]      267.087 [J/(mol K)]       0.10172807 [mEh/K]
  Correction S              0.000 [cal/(mol K)]        0.000 [J/(mol K)]       0.00000000 [mEh/K]

  Constant volume heat capacity, Cv
    Electronic Cv           0.000 [cal/(mol K)]        0.000 [J/(mol K)]       0.00000000 [mEh/K]
    Translational Cv        2.981 [cal/(mol K)]       12.472 [J/(mol K)]       0.00475022 [mEh/K]
    Rotational Cv           2.981 [cal/(mol K)]       12.472 [J/(mol K)]       0.00475022 [mEh/K]
    Vibrational Cv          6.700 [cal/(mol K)]       28.033 [J/(mol K)]       0.01067712 [mEh/K]
  Total Cv                 12.662 [cal/(mol K)]       52.976 [J/(mol K)]       0.02017755 [mEh/K]
  Correction Cv             0.000 [cal/(mol K)]        0.000 [J/(mol K)]       0.00000000 [mEh/K]

  Constant pressure heat capacity, Cp
    Electronic Cp           0.000 [cal/(mol K)]        0.000 [J/(mol K)]       0.00000000 [mEh/K]
    Translational Cp        4.968 [cal/(mol K)]       20.786 [J/(mol K)]       0.00791703 [mEh/K]
    Rotational Cp           2.981 [cal/(mol K)]       12.472 [J/(mol K)]       0.00475022 [mEh/K]
    Vibrational Cp          6.700 [cal/(mol K)]       28.033 [J/(mol K)]       0.01067712 [mEh/K]
  Total Cp                 14.649 [cal/(mol K)]       61.291 [J/(mol K)]       0.02334436 [mEh/K]
  Correction Cp             0.000 [cal/(mol K)]        0.000 [J/(mol K)]       0.00000000 [mEh/K]

  ==> Thermochemistry Energy Analysis <==

  Raw electronic energy, E0
  Total E0, Electronic energy at well bottom at 0 [K]                 -154.07567155 [Eh]

  Zero-point energy, ZPE_vib = Sum_i nu_i / 2
    Electronic ZPE          0.000 [kcal/mol]        0.000 [kJ/mol]       0.00000000 [Eh]
    Translational ZPE       0.000 [kcal/mol]        0.000 [kJ/mol]       0.00000000 [Eh]
    Rotational ZPE          0.000 [kcal/mol]        0.000 [kJ/mol]       0.00000000 [Eh]
    Vibrational ZPE        53.984 [kcal/mol]      225.871 [kJ/mol]       0.08602965 [Eh]       18881.325 [cm^-1]
  Correction ZPE           53.984 [kcal/mol]      225.871 [kJ/mol]       0.08602965 [Eh]       18881.325 [cm^-1]
  Total ZPE, Electronic energy at 0 [K]                               -153.98964190 [Eh]

  Thermal Energy, E (includes ZPE)
    Electronic E            0.000 [kcal/mol]        0.000 [kJ/mol]       0.00000000 [Eh]
    Translational E         0.889 [kcal/mol]        3.718 [kJ/mol]       0.00141628 [Eh]
    Rotational E            0.889 [kcal/mol]        3.718 [kJ/mol]       0.00141628 [Eh]
    Vibrational E          54.800 [kcal/mol]      229.281 [kJ/mol]       0.08732869 [Eh]
  Correction E             56.577 [kcal/mol]      236.718 [kJ/mol]       0.09016124 [Eh]
  Total E, Electronic energy at  298.15 [K]                           -153.98551030 [Eh]

  Enthalpy, H_trans = E_trans + k_B * T
    Electronic H            0.000 [kcal/mol]        0.000 [kJ/mol]       0.00000000 [Eh]
    Translational H         1.481 [kcal/mol]        6.197 [kJ/mol]       0.00236046 [Eh]
    Rotational H            0.889 [kcal/mol]        3.718 [kJ/mol]       0.00141628 [Eh]
    Vibrational H          54.800 [kcal/mol]      229.281 [kJ/mol]       0.08732869 [Eh]
  Correction H             57.170 [kcal/mol]      239.197 [kJ/mol]       0.09110543 [Eh]
  Total H, Enthalpy at  298.15 [K]                                    -153.98456612 [Eh]

  Gibbs free energy, G = H - T * S
    Electronic G            0.000 [kcal/mol]        0.000 [kJ/mol]       0.00000000 [Eh]
    Translational G        -9.671 [kcal/mol]      -40.465 [kJ/mol]      -0.01541235 [Eh]
    Rotational G           -5.749 [kcal/mol]      -24.056 [kJ/mol]      -0.00916233 [Eh]
    Vibrational G          53.558 [kcal/mol]      224.086 [kJ/mol]       0.08534988 [Eh]
  Correction G             38.137 [kcal/mol]      159.565 [kJ/mol]       0.06077520 [Eh]
  Total G, Free enthalpy at  298.15 [K]                               -154.01489634 [Eh]

  Lowdin Charges: (a.u.)
   Center  Symbol    Alpha    Beta     Spin     Total
       1     C     3.03721  3.03721  0.00000 -0.07441
       2     H     0.44198  0.44198  0.00000  0.11604
       3     H     0.44083  0.44083  0.00000  0.11834
       4     O     4.26538  4.26538  0.00000 -0.53075
       5     H     0.32310  0.32310  0.00000  0.35380
       6     C     3.21458  3.21458  0.00000 -0.42916
       7     H     0.42365  0.42365  0.00000  0.15270
       8     H     0.42462  0.42462  0.00000  0.15076
       9     H     0.42865  0.42865  0.00000  0.14269

  Total alpha = 13.00000, Total beta = 13.00000, Total charge =  0.00000

*** Psi4 exiting successfully. Buy a developer a beer!
